11731186
  -OEChem-01312502352D

 81 83  0     1  0  0  0  0  0999 V2000
    2.8660    0.5779    0.0000 O   0  0  0  0  0  0  0  0  0  0  0  0
    3.7226    0.0613    0.0000 O   0  0  0  0  0  0  0  0  0  0  0  0
    6.9641    0.2119    0.0000 O   0  0  0  0  0  0  0  0  0  0  0  0
    3.7118   -2.8852    0.0000 O   0  0  0  0  0  0  0  0  0  0  0  0
    5.4641    1.0780    0.0000 N   0  0  0  0  0  0  0  0  0  0  0  0
    5.4641   -0.9221    0.0000 N   0  0  0  0  0  0  0  0  0  0  0  0
    6.4641    2.8100    0.0000 N   0  0  0  0  0  0  0  0  0  0  0  0
    4.5981   -3.4220    0.0000 N   0  0  0  0  0  0  0  0  0  0  0  0
    3.7320    1.0780    0.0000 C   0  0  2  0  0  0  0  0  0  0  0  0
    4.5981    0.5779    0.0000 C   0  0  1  0  0  0  0  0  0  0  0  0
    3.7320    2.0780    0.0000 C   0  0  0  0  0  0  0  0  0  0  0  0
    5.4641   -1.9220    0.0000 C   0  0  1  0  0  0  0  0  0  0  0  0
    4.5981   -0.4221    0.0000 C   0  0  0  0  0  0  0  0  0  0  0  0
    6.3301   -2.4220    0.0000 C   0  0  0  0  0  0  0  0  0  0  0  0
    6.9641    1.9440    0.0000 C   0  0  2  0  0  0  0  0  0  0  0  0
    2.8660    2.5779    0.0000 C   0  0  0  0  0  0  0  0  0  0  0  0
    4.5981    2.5780    0.0000 C   0  0  0  0  0  0  0  0  0  0  0  0
    7.1962   -1.9220    0.0000 C   0  0  0  0  0  0  0  0  0  0  0  0
    6.4641    1.0780    0.0000 C   0  0  0  0  0  0  0  0  0  0  0  0
    7.9641    1.9440    0.0000 C   0  0  0  0  0  0  0  0  0  0  0  0
    4.5981   -2.4220    0.0000 C   0  0  0  0  0  0  0  0  0  0  0  0
    8.0622   -2.4220    0.0000 C   0  0  0  0  0  0  0  0  0  0  0  0
    7.1962   -0.9220    0.0000 C   0  0  0  0  0  0  0  0  0  0  0  0
    2.8660   -0.4221    0.0000 C   0  0  0  0  0  0  0  0  0  0  0  0
    8.4641    2.8100    0.0000 C   0  0  0  0  0  0  0  0  0  0  0  0
    6.9641    3.6760    0.0000 C   0  0  0  0  0  0  0  0  0  0  0  0
    5.4641    2.8100    0.0000 C   0  0  0  0  0  0  0  0  0  0  0  0
    2.0000   -0.9221    0.0000 C   0  0  0  0  0  0  0  0  0  0  0  0
    3.7320   -0.9221    0.0000 C   0  0  0  0  0  0  0  0  0  0  0  0
    2.8660   -2.4220    0.0000 C   0  0  0  0  0  0  0  0  0  0  0  0
    9.4641    2.8100    0.0000 C   0  0  0  0  0  0  0  0  0  0  0  0
    7.9641    3.6760    0.0000 C   0  0  0  0  0  0  0  0  0  0  0  0
    2.0000   -1.9220    0.0000 C   0  0  0  0  0  0  0  0  0  0  0  0
    3.7320   -1.9220    0.0000 C   0  0  0  0  0  0  0  0  0  0  0  0
    3.7320   -3.9220    0.0000 C   0  0  0  0  0  0  0  0  0  0  0  0
    2.8660   -3.4220    0.0000 C   0  0  0  0  0  0  0  0  0  0  0  0
    9.9641    3.6760    0.0000 C   0  0  0  0  0  0  0  0  0  0  0  0
    8.4641    4.5420    0.0000 C   0  0  0  0  0  0  0  0  0  0  0  0
    9.4641    4.5420    0.0000 C   0  0  0  0  0  0  0  0  0  0  0  0
    3.1951    1.3880    0.0000 H   0  0  0  0  0  0  0  0  0  0  0  0
    5.1350    0.2679    0.0000 H   0  0  0  0  0  0  0  0  0  0  0  0
    4.2690    1.7680    0.0000 H   0  0  0  0  0  0  0  0  0  0  0  0
    6.0010   -1.6120    0.0000 H   0  0  0  0  0  0  0  0  0  0  0  0
    5.4641    1.6980    0.0000 H   0  0  0  0  0  0  0  0  0  0  0  0
    5.9316   -2.8970    0.0000 H   0  0  0  0  0  0  0  0  0  0  0  0
    6.7287   -2.8970    0.0000 H   0  0  0  0  0  0  0  0  0  0  0  0
    6.3441    1.9440    0.0000 H   0  0  0  0  0  0  0  0  0  0  0  0
    6.0010   -0.6121    0.0000 H   0  0  0  0  0  0  0  0  0  0  0  0
    3.1760    3.1149    0.0000 H   0  0  0  0  0  0  0  0  0  0  0  0
    2.3291    2.8879    0.0000 H   0  0  0  0  0  0  0  0  0  0  0  0
    2.5560    2.0410    0.0000 H   0  0  0  0  0  0  0  0  0  0  0  0
    4.9081    2.0410    0.0000 H   0  0  0  0  0  0  0  0  0  0  0  0
    5.1350    2.8880    0.0000 H   0  0  0  0  0  0  0  0  0  0  0  0
    4.2881    3.1149    0.0000 H   0  0  0  0  0  0  0  0  0  0  0  0
    6.6592   -1.6120    0.0000 H   0  0  0  0  0  0  0  0  0  0  0  0
    7.8564    1.3334    0.0000 H   0  0  0  0  0  0  0  0  0  0  0  0
    8.5467    1.7319    0.0000 H   0  0  0  0  0  0  0  0  0  0  0  0
    7.7522   -2.9590    0.0000 H   0  0  0  0  0  0  0  0  0  0  0  0
    8.5991   -2.7320    0.0000 H   0  0  0  0  0  0  0  0  0  0  0  0
    8.3722   -1.8851    0.0000 H   0  0  0  0  0  0  0  0  0  0  0  0
    7.8162   -0.9220    0.0000 H   0  0  0  0  0  0  0  0  0  0  0  0
    7.1962   -0.3020    0.0000 H   0  0  0  0  0  0  0  0  0  0  0  0
    6.5762   -0.9220    0.0000 H   0  0  0  0  0  0  0  0  0  0  0  0
    7.5010    3.3660    0.0000 H   0  0  0  0  0  0  0  0  0  0  0  0
    7.2741    4.2130    0.0000 H   0  0  0  0  0  0  0  0  0  0  0  0
    6.4272    3.9860    0.0000 H   0  0  0  0  0  0  0  0  0  0  0  0
    5.4641    3.4300    0.0000 H   0  0  0  0  0  0  0  0  0  0  0  0
    4.8441    2.8100    0.0000 H   0  0  0  0  0  0  0  0  0  0  0  0
    5.4641    2.1900    0.0000 H   0  0  0  0  0  0  0  0  0  0  0  0
    5.1350   -3.7320    0.0000 H   0  0  0  0  0  0  0  0  0  0  0  0
    1.4631   -0.6121    0.0000 H   0  0  0  0  0  0  0  0  0  0  0  0
    4.2690   -0.6121    0.0000 H   0  0  0  0  0  0  0  0  0  0  0  0
    9.7741    2.2731    0.0000 H   0  0  0  0  0  0  0  0  0  0  0  0
    7.3441    3.6760    0.0000 H   0  0  0  0  0  0  0  0  0  0  0  0
    1.4631   -2.2320    0.0000 H   0  0  0  0  0  0  0  0  0  0  0  0
    4.2690   -2.2320    0.0000 H   0  0  0  0  0  0  0  0  0  0  0  0
    3.7320   -4.5420    0.0000 H   0  0  0  0  0  0  0  0  0  0  0  0
    2.3291   -3.7320    0.0000 H   0  0  0  0  0  0  0  0  0  0  0  0
   10.5841    3.6760    0.0000 H   0  0  0  0  0  0  0  0  0  0  0  0
    8.1541    5.0790    0.0000 H   0  0  0  0  0  0  0  0  0  0  0  0
    9.7741    5.0790    0.0000 H   0  0  0  0  0  0  0  0  0  0  0  0
  1  9  1  0  0  0  0
  1 24  1  0  0  0  0
  2 13  2  0  0  0  0
  3 19  2  0  0  0  0
  4 21  2  0  0  0  0
 10  5  1  6  0  0  0
  5 19  1  0  0  0  0
  5 44  1  0  0  0  0
  6 12  1  0  0  0  0
  6 13  1  0  0  0  0
  6 48  1  0  0  0  0
 15  7  1  1  0  0  0
  7 26  1  0  0  0  0
  7 27  1  0  0  0  0
  8 21  1  0  0  0  0
  8 35  1  0  0  0  0
  8 70  1  0  0  0  0
  9 10  1  0  0  0  0
  9 11  1  1  0  0  0
  9 40  1  0  0  0  0
 10 13  1  0  0  0  0
 10 41  1  0  0  0  0
 11 16  1  0  0  0  0
 11 17  1  0  0  0  0
 11 42  1  0  0  0  0
 12 14  1  1  0  0  0
 12 21  1  0  0  0  0
 12 43  1  0  0  0  0
 14 18  1  0  0  0  0
 14 45  1  0  0  0  0
 14 46  1  0  0  0  0
 15 19  1  0  0  0  0
 15 20  1  0  0  0  0
 15 47  1  0  0  0  0
 16 49  1  0  0  0  0
 16 50  1  0  0  0  0
 16 51  1  0  0  0  0
 17 52  1  0  0  0  0
 17 53  1  0  0  0  0
 17 54  1  0  0  0  0
 18 22  1  0  0  0  0
 18 23  1  0  0  0  0
 18 55  1  0  0  0  0
 20 25  1  0  0  0  0
 20 56  1  0  0  0  0
 20 57  1  0  0  0  0
 22 58  1  0  0  0  0
 22 59  1  0  0  0  0
 22 60  1  0  0  0  0
 23 61  1  0  0  0  0
 23 62  1  0  0  0  0
 23 63  1  0  0  0  0
 24 28  2  0  0  0  0
 24 29  1  0  0  0  0
 25 31  2  0  0  0  0
 25 32  1  0  0  0  0
 26 64  1  0  0  0  0
 26 65  1  0  0  0  0
 26 66  1  0  0  0  0
 27 67  1  0  0  0  0
 27 68  1  0  0  0  0
 27 69  1  0  0  0  0
 28 33  1  0  0  0  0
 28 71  1  0  0  0  0
 29 34  2  0  0  0  0
 29 72  1  0  0  0  0
 30 33  2  0  0  0  0
 30 34  1  0  0  0  0
 30 36  1  0  0  0  0
 31 37  1  0  0  0  0
 31 73  1  0  0  0  0
 32 38  2  0  0  0  0
 32 74  1  0  0  0  0
 33 75  1  0  0  0  0
 34 76  1  0  0  0  0
 35 36  2  0  0  0  0
 35 77  1  0  0  0  0
 36 78  1  0  0  0  0
 37 39  2  0  0  0  0
 37 79  1  0  0  0  0
 38 39  1  0  0  0  0
 38 80  1  0  0  0  0
 39 81  1  0  0  0  0
M  END
> <PUBCHEM_COMPOUND_CID>
11731186

> <PUBCHEM_COMPOUND_CANONICALIZED>
1

> <PUBCHEM_CACTVS_COMPLEXITY>
828

> <PUBCHEM_CACTVS_HBOND_ACCEPTOR>
5

> <PUBCHEM_CACTVS_HBOND_DONOR>
3

> <PUBCHEM_CACTVS_ROTATABLE_BOND>
8

> <PUBCHEM_CACTVS_SUBSKEYS>
AAADcfB7uAAAAAAAAAAAAAAAAAAAAAAAAAAwYAAAAAAAAAABQAAAHgAQAAAADTzhmAYyBoPABACIAiFWUAACCAAgIgAIiIGOCIgOZjaEsTuXOCCm9hGYqAeYyICOIAAAAAAAAABAAAAAAAAAAAAAAAAAAA==

> <PUBCHEM_IUPAC_OPENEYE_NAME>
(2S)-2-(dimethylamino)-N-[(3S,4S,7S,10Z)-7-isobutyl-3-isopropyl-5,8-dioxo-2-oxa-6,9-diazabicyclo[10.2.2]hexadeca-1(14),10,12,15-tetraen-4-yl]-3-phenyl-propanamide

> <PUBCHEM_IUPAC_CAS_NAME>
(2S)-2-(dimethylamino)-N-[(3S,4S,7S,10Z)-7-(2-methylpropyl)-5,8-dioxo-3-propan-2-yl-2-oxa-6,9-diazabicyclo[10.2.2]hexadeca-1(14),10,12,15-tetraen-4-yl]-3-phenylpropanamide

> <PUBCHEM_IUPAC_NAME_MARKUP>
(2<I>S</I>)-2-(dimethylamino)-<I>N</I>-[(3<I>S</I>,4<I>S</I>,7<I>S</I>,10<I>Z</I>)-7-(2-methylpropyl)-5,8-dioxo-3-propan-2-yl-2-oxa-6,9-diazabicyclo[10.2.2]hexadeca-1(14),10,12,15-tetraen-4-yl]-3-phenylpropanamide

> <PUBCHEM_IUPAC_NAME>
(2S)-2-(dimethylamino)-N-[(3S,4S,7S,10Z)-7-(2-methylpropyl)-5,8-dioxo-3-propan-2-yl-2-oxa-6,9-diazabicyclo[10.2.2]hexadeca-1(14),10,12,15-tetraen-4-yl]-3-phenylpropanamide

> <PUBCHEM_IUPAC_SYSTEMATIC_NAME>
(2S)-2-(dimethylamino)-N-[(3S,4S,7S,10Z)-7-(2-methylpropyl)-5,8-bis(oxidanylidene)-3-propan-2-yl-2-oxa-6,9-diazabicyclo[10.2.2]hexadeca-1(14),10,12,15-tetraen-4-yl]-3-phenyl-propanamide

> <PUBCHEM_IUPAC_TRADITIONAL_NAME>
(2S)-2-(dimethylamino)-N-[(3S,4S,7S,10Z)-7-isobutyl-3-isopropyl-5,8-diketo-2-oxa-6,9-diazabicyclo[10.2.2]hexadeca-1(14),10,12,15-tetraen-4-yl]-3-phenyl-propionamide

> <PUBCHEM_IUPAC_INCHI>
InChI=1S/C31H42N4O4/c1-20(2)18-25-29(36)32-17-16-22-12-14-24(15-13-22)39-28(21(3)4)27(31(38)33-25)34-30(37)26(35(5)6)19-23-10-8-7-9-11-23/h7-17,20-21,25-28H,18-19H2,1-6H3,(H,32,36)(H,33,38)(H,34,37)/b17-16-/t25-,26-,27-,28-/m0/s1

> <PUBCHEM_IUPAC_INCHIKEY>
TVUQUDJOLFMOKT-SPZUWTHGSA-N

> <PUBCHEM_XLOGP3_AA>
5.2

> <PUBCHEM_EXACT_MASS>
534.32060583

> <PUBCHEM_MOLECULAR_FORMULA>
C31H42N4O4

> <PUBCHEM_MOLECULAR_WEIGHT>
534.7

> <PUBCHEM_SMILES>
CC(C)C[C@H]1C(=O)N/C=C\C2=CC=C(C=C2)O[C@H]([C@@H](C(=O)N1)NC(=O)[C@H](CC3=CC=CC=C3)N(C)C)C(C)C

> <PUBCHEM_OPENEYE_CAN_SMILES>
CC(C)CC1C(=O)NC=CC2=CC=C(C=C2)OC(C(C(=O)N1)NC(=O)C(CC3=CC=CC=C3)N(C)C)C(C)C

> <PUBCHEM_OPENEYE_ISO_SMILES>
CC(C)C[C@H]1C(=O)N/C=C\C2=CC=C(C=C2)O[C@H]([C@@H](C(=O)N1)NC(=O)[C@H](CC3=CC=CC=C3)N(C)C)C(C)C

> <PUBCHEM_CACTVS_TPSA>
99.8

> <PUBCHEM_MONOISOTOPIC_WEIGHT>
534.32060583

> <PUBCHEM_TOTAL_CHARGE>
0

> <PUBCHEM_HEAVY_ATOM_COUNT>
39

> <PUBCHEM_ATOM_DEF_STEREO_COUNT>
4

> <PUBCHEM_ATOM_UDEF_STEREO_COUNT>
0

> <PUBCHEM_BOND_DEF_STEREO_COUNT>
1

> <PUBCHEM_BOND_UDEF_STEREO_COUNT>
0

> <PUBCHEM_ISOTOPIC_ATOM_COUNT>
0

> <PUBCHEM_COMPONENT_COUNT>
1

> <PUBCHEM_CACTVS_TAUTO_COUNT>
-1

> <PUBCHEM_COORDINATE_TYPE>
1
5
255

> <PUBCHEM_BONDANNOTATIONS>
12  14  5
24  28  8
24  29  8
25  31  8
25  32  8
28  33  8
29  34  8
30  33  8
30  34  8
31  37  8
32  38  8
37  39  8
38  39  8
10  5  6
15  7  5
9  11  5

$$$$
