24883566
  -OEChem-01312502352D

 93 99  0     1  0  0  0  0  0999 V2000
    5.6076   -0.9129    0.0000 O   0  0  0  0  0  0  0  0  0  0  0  0
    7.7407   -2.1372    0.0000 O   0  0  0  0  0  0  0  0  0  0  0  0
    8.9478    1.6800    0.0000 O   0  0  0  0  0  0  0  0  0  0  0  0
    5.2314    1.4285    0.0000 O   0  0  0  0  0  0  0  0  0  0  0  0
    6.8226    2.9919    0.0000 O   0  0  0  0  0  0  0  0  0  0  0  0
    4.8185   -0.4717    0.0000 O   0  0  0  0  0  0  0  0  0  0  0  0
    4.8302    2.1380    0.0000 O   0  0  0  0  0  0  0  0  0  0  0  0
   10.6987   -0.5901    0.0000 O   0  0  0  0  0  0  0  0  0  0  0  0
    9.8138   -2.5551    0.0000 O   0  0  0  0  0  0  0  0  0  0  0  0
    6.0996   -2.5737    0.0000 O   0  0  0  0  0  0  0  0  0  0  0  0
    4.0036    0.2068    0.0000 O   0  0  0  0  0  0  0  0  0  0  0  0
   10.1431   -0.1490    0.0000 N   0  0  3  0  0  0  0  0  0  0  0  0
    8.1965    0.2462    0.0000 C   0  0  3  0  0  0  0  0  0  0  0  0
    8.1965   -0.6213    0.0000 C   0  0  3  0  0  0  0  0  0  0  0  0
    7.5182    0.7872    0.0000 C   0  0  1  0  0  0  0  0  0  0  0  0
    9.1984    0.1402    0.0000 C   0  0  2  0  0  0  0  0  0  0  0  0
    6.6723   -0.9692    0.0000 C   0  0  1  0  0  0  0  0  0  0  0  0
    6.6723    0.5941    0.0000 C   0  0  1  0  0  0  0  0  0  0  0  0
    6.2959   -0.1876    0.0000 C   0  0  1  0  0  0  0  0  0  0  0  0
    7.5182   -1.1623    0.0000 C   0  0  3  0  0  0  0  0  0  0  0  0
    8.9478   -1.0551    0.0000 C   0  0  2  0  0  0  0  0  0  0  0  0
    8.9478    0.6800    0.0000 C   0  0  3  0  0  0  0  0  0  0  0  0
    7.5959    1.6512    0.0000 C   0  0  0  0  0  0  0  0  0  0  0  0
    6.7982    1.9922    0.0000 C   0  0  2  0  0  0  0  0  0  0  0  0
    6.2274    1.3389    0.0000 C   0  0  2  0  0  0  0  0  0  0  0  0
    5.6510    0.0824    0.0000 C   0  0  2  0  0  0  0  0  0  0  0  0
   10.1431   -0.9009    0.0000 C   0  0  0  0  0  0  0  0  0  0  0  0
    9.6992   -0.6213    0.0000 C   0  0  1  0  0  0  0  0  0  0  0  0
    5.6510    1.5669    0.0000 C   0  0  2  0  0  0  0  0  0  0  0  0
    9.6992    0.2462    0.0000 C   0  0  0  0  0  0  0  0  0  0  0  0
    8.9478   -2.0551    0.0000 C   0  0  0  0  0  0  0  0  0  0  0  0
   10.9471    0.4457    0.0000 C   0  0  0  0  0  0  0  0  0  0  0  0
    5.3741   -1.8853    0.0000 C   0  0  0  0  0  0  0  0  0  0  0  0
    7.0076   -2.8174    0.0000 C   0  0  0  0  0  0  0  0  0  0  0  0
   11.8641    0.0468    0.0000 C   0  0  0  0  0  0  0  0  0  0  0  0
    9.8138    2.1800    0.0000 C   0  0  0  0  0  0  0  0  0  0  0  0
    4.2648    1.1721    0.0000 C   0  0  0  0  0  0  0  0  0  0  0  0
    4.9143    3.1344    0.0000 C   0  0  0  0  0  0  0  0  0  0  0  0
    4.4154   -2.1694    0.0000 C   0  0  0  0  0  0  0  0  0  0  0  0
    9.8138   -3.5551    0.0000 C   0  0  0  0  0  0  0  0  0  0  0  0
    3.5595    1.8810    0.0000 C   0  0  0  0  0  0  0  0  0  0  0  0
    3.8207    2.8462    0.0000 C   0  0  0  0  0  0  0  0  0  0  0  0
    2.5929    1.6246    0.0000 C   0  0  0  0  0  0  0  0  0  0  0  0
    3.1154    3.5551    0.0000 C   0  0  0  0  0  0  0  0  0  0  0  0
    1.8876    2.3334    0.0000 C   0  0  0  0  0  0  0  0  0  0  0  0
    2.1488    3.2987    0.0000 C   0  0  0  0  0  0  0  0  0  0  0  0
    7.6379   -0.3523    0.0000 H   0  0  0  0  0  0  0  0  0  0  0  0
    8.2998    1.1212    0.0000 H   0  0  0  0  0  0  0  0  0  0  0  0
    9.5104    0.9309    0.0000 H   0  0  0  0  0  0  0  0  0  0  0  0
    6.5456   -1.8097    0.0000 H   0  0  0  0  0  0  0  0  0  0  0  0
    5.8232    0.5560    0.0000 H   0  0  0  0  0  0  0  0  0  0  0  0
    8.1034   -1.3670    0.0000 H   0  0  0  0  0  0  0  0  0  0  0  0
    8.4109    0.9900    0.0000 H   0  0  0  0  0  0  0  0  0  0  0  0
    7.7787    2.2437    0.0000 H   0  0  0  0  0  0  0  0  0  0  0  0
    8.2042    1.5314    0.0000 H   0  0  0  0  0  0  0  0  0  0  0  0
    5.9965    1.9143    0.0000 H   0  0  0  0  0  0  0  0  0  0  0  0
    5.1045    0.3751    0.0000 H   0  0  0  0  0  0  0  0  0  0  0  0
   10.7626   -0.8744    0.0000 H   0  0  0  0  0  0  0  0  0  0  0  0
   10.1961   -1.5186    0.0000 H   0  0  0  0  0  0  0  0  0  0  0  0
    9.8689   -1.2176    0.0000 H   0  0  0  0  0  0  0  0  0  0  0  0
    5.7292    2.1819    0.0000 H   0  0  0  0  0  0  0  0  0  0  0  0
    9.9112    0.8288    0.0000 H   0  0  0  0  0  0  0  0  0  0  0  0
   10.3097    0.1386    0.0000 H   0  0  0  0  0  0  0  0  0  0  0  0
    8.7358   -2.6377    0.0000 H   0  0  0  0  0  0  0  0  0  0  0  0
    8.3372   -1.9475    0.0000 H   0  0  0  0  0  0  0  0  0  0  0  0
   10.4975    0.8725    0.0000 H   0  0  0  0  0  0  0  0  0  0  0  0
   11.2894    0.9626    0.0000 H   0  0  0  0  0  0  0  0  0  0  0  0
    6.2934    3.3150    0.0000 H   0  0  0  0  0  0  0  0  0  0  0  0
    4.8579   -1.0904    0.0000 H   0  0  0  0  0  0  0  0  0  0  0  0
   11.0253   -1.1171    0.0000 H   0  0  0  0  0  0  0  0  0  0  0  0
    7.4293   -3.2718    0.0000 H   0  0  0  0  0  0  0  0  0  0  0  0
    6.5531   -3.2391    0.0000 H   0  0  0  0  0  0  0  0  0  0  0  0
    6.5859   -2.3629    0.0000 H   0  0  0  0  0  0  0  0  0  0  0  0
   12.1114    0.6153    0.0000 H   0  0  0  0  0  0  0  0  0  0  0  0
   12.4326   -0.2006    0.0000 H   0  0  0  0  0  0  0  0  0  0  0  0
   11.6168   -0.5218    0.0000 H   0  0  0  0  0  0  0  0  0  0  0  0
    9.5038    2.7170    0.0000 H   0  0  0  0  0  0  0  0  0  0  0  0
   10.3508    2.4900    0.0000 H   0  0  0  0  0  0  0  0  0  0  0  0
   10.1238    1.6431    0.0000 H   0  0  0  0  0  0  0  0  0  0  0  0
    4.2965    3.1866    0.0000 H   0  0  0  0  0  0  0  0  0  0  0  0
    4.9665    3.7522    0.0000 H   0  0  0  0  0  0  0  0  0  0  0  0
    5.5321    3.0823    0.0000 H   0  0  0  0  0  0  0  0  0  0  0  0
    4.5915   -2.7638    0.0000 H   0  0  0  0  0  0  0  0  0  0  0  0
    3.8209   -2.3455    0.0000 H   0  0  0  0  0  0  0  0  0  0  0  0
    4.2392   -1.5749    0.0000 H   0  0  0  0  0  0  0  0  0  0  0  0
   10.4338   -3.5551    0.0000 H   0  0  0  0  0  0  0  0  0  0  0  0
    9.8138   -4.1751    0.0000 H   0  0  0  0  0  0  0  0  0  0  0  0
    9.1938   -3.5551    0.0000 H   0  0  0  0  0  0  0  0  0  0  0  0
    4.4200    3.0052    0.0000 H   0  0  0  0  0  0  0  0  0  0  0  0
    2.4310    1.0261    0.0000 H   0  0  0  0  0  0  0  0  0  0  0  0
    3.2773    4.1536    0.0000 H   0  0  0  0  0  0  0  0  0  0  0  0
    1.2883    2.1745    0.0000 H   0  0  0  0  0  0  0  0  0  0  0  0
    1.7115    3.7382    0.0000 H   0  0  0  0  0  0  0  0  0  0  0  0
 19  1  1  6  0  0  0
  1 33  1  0  0  0  0
  2 20  1  0  0  0  0
  2 34  1  0  0  0  0
  3 22  1  0  0  0  0
  3 36  1  0  0  0  0
 25  4  1  1  0  0  0
  4 37  1  0  0  0  0
 24  5  1  6  0  0  0
  5 68  1  0  0  0  0
 26  6  1  1  0  0  0
  6 69  1  0  0  0  0
 29  7  1  6  0  0  0
  7 38  1  0  0  0  0
 28  8  1  1  0  0  0
  8 70  1  0  0  0  0
  9 31  1  0  0  0  0
  9 40  1  0  0  0  0
 10 33  2  0  0  0  0
 11 37  2  0  0  0  0
 12 16  1  0  0  0  0
 12 27  1  0  0  0  0
 12 32  1  0  0  0  0
 13 14  1  0  0  0  0
 13 15  1  0  0  0  0
 13 16  1  0  0  0  0
 13 22  1  0  0  0  0
 14 20  1  0  0  0  0
 14 21  1  0  0  0  0
 14 47  1  0  0  0  0
 15 18  1  0  0  0  0
 15 23  1  0  0  0  0
 15 48  1  6  0  0  0
 16 17  1  0  0  0  0
 16 49  1  6  0  0  0
 17 19  1  0  0  0  0
 17 20  1  0  0  0  0
 17 50  1  1  0  0  0
 18 19  1  0  0  0  0
 18 25  1  0  0  0  0
 18 51  1  6  0  0  0
 19 26  1  0  0  0  0
 20 52  1  0  0  0  0
 21 27  1  0  0  0  0
 21 28  1  0  0  0  0
 21 31  1  6  0  0  0
 22 30  1  0  0  0  0
 22 53  1  0  0  0  0
 23 24  1  0  0  0  0
 23 54  1  0  0  0  0
 23 55  1  0  0  0  0
 24 25  1  0  0  0  0
 24 29  1  0  0  0  0
 25 56  1  0  0  0  0
 26 29  1  0  0  0  0
 26 57  1  0  0  0  0
 27 58  1  0  0  0  0
 27 59  1  0  0  0  0
 28 30  1  0  0  0  0
 28 60  1  0  0  0  0
 29 61  1  0  0  0  0
 30 62  1  0  0  0  0
 30 63  1  0  0  0  0
 31 64  1  0  0  0  0
 31 65  1  0  0  0  0
 32 35  1  0  0  0  0
 32 66  1  0  0  0  0
 32 67  1  0  0  0  0
 33 39  1  0  0  0  0
 34 71  1  0  0  0  0
 34 72  1  0  0  0  0
 34 73  1  0  0  0  0
 35 74  1  0  0  0  0
 35 75  1  0  0  0  0
 35 76  1  0  0  0  0
 36 77  1  0  0  0  0
 36 78  1  0  0  0  0
 36 79  1  0  0  0  0
 37 41  1  0  0  0  0
 38 80  1  0  0  0  0
 38 81  1  0  0  0  0
 38 82  1  0  0  0  0
 39 83  1  0  0  0  0
 39 84  1  0  0  0  0
 39 85  1  0  0  0  0
 40 86  1  0  0  0  0
 40 87  1  0  0  0  0
 40 88  1  0  0  0  0
 41 42  2  0  0  0  0
 41 43  1  0  0  0  0
 42 44  1  0  0  0  0
 42 89  1  0  0  0  0
 43 45  2  0  0  0  0
 43 90  1  0  0  0  0
 44 46  2  0  0  0  0
 44 91  1  0  0  0  0
 45 46  1  0  0  0  0
 45 92  1  0  0  0  0
 46 93  1  0  0  0  0
M  END
> <PUBCHEM_COMPOUND_CID>
24883566

> <PUBCHEM_COMPOUND_CANONICALIZED>
1

> <PUBCHEM_CACTVS_COMPLEXITY>
1210

> <PUBCHEM_CACTVS_HBOND_ACCEPTOR>
12

> <PUBCHEM_CACTVS_HBOND_DONOR>
3

> <PUBCHEM_CACTVS_ROTATABLE_BOND>
11

> <PUBCHEM_CACTVS_SUBSKEYS>
AAADcfB+PAAAAAAAAAAAAAAAAAAAAYMAAAA8YMGCB4gWAGABAAAAHgAACAAAD3zhmAYyCIMABgCIAiDSCAACAAAkAAAIiAEICMgJNjKAtRiGcQAnwAGLqYf4+P+PgAAAAAAAAADSAAaUADSAAaEADSAAAA==

> <PUBCHEM_IUPAC_OPENEYE_NAME>
[(2R,3R,4R,5R,6S,7S,8R,9R,10S,13R,14R)-8-acetoxy-11-ethyl-5,7,14-trihydroxy-6,16,18-trimethoxy-13-(methoxymethyl)-11-azahexacyclo[7.7.2.12,5.01,10.03,8.013,17]nonadecan-4-yl] benzoate

> <PUBCHEM_IUPAC_CAS_NAME>
benzoic acid [(2R,3R,4R,5R,6S,7S,8R,9R,10S,13R,14R)-8-acetyloxy-11-ethyl-5,7,14-trihydroxy-6,16,18-trimethoxy-13-(methoxymethyl)-11-azahexacyclo[7.7.2.12,5.01,10.03,8.013,17]nonadecan-4-yl] ester

> <PUBCHEM_IUPAC_NAME_MARKUP>
[(2<I>R</I>,3<I>R</I>,4<I>R</I>,5<I>R</I>,6<I>S</I>,7<I>S</I>,8<I>R</I>,9<I>R</I>,10<I>S</I>,13<I>R</I>,14<I>R</I>)-8-acetyloxy-11-ethyl-5,7,14-trihydroxy-6,16,18-trimethoxy-13-(methoxymethyl)-11-azahexacyclo[7.7.2.1<SUP>2,5</SUP>.0<SUP>1,10</SUP>.0<SUP>3,8</SUP>.0<SUP>13,17</SUP>]nonadecan-4-yl] benzoate

> <PUBCHEM_IUPAC_NAME>
[(2R,3R,4R,5R,6S,7S,8R,9R,10S,13R,14R)-8-acetyloxy-11-ethyl-5,7,14-trihydroxy-6,16,18-trimethoxy-13-(methoxymethyl)-11-azahexacyclo[7.7.2.12,5.01,10.03,8.013,17]nonadecan-4-yl] benzoate

> <PUBCHEM_IUPAC_SYSTEMATIC_NAME>
[(2R,3R,4R,5R,6S,7S,8R,9R,10S,13R,14R)-8-acetyloxy-11-ethyl-6,16,18-trimethoxy-13-(methoxymethyl)-5,7,14-tris(oxidanyl)-11-azahexacyclo[7.7.2.12,5.01,10.03,8.013,17]nonadecan-4-yl] benzoate

> <PUBCHEM_IUPAC_TRADITIONAL_NAME>
benzoic acid [(2R,3R,4R,5R,6S,7S,8R,9R,10S,13R,14R)-8-acetoxy-11-ethyl-5,7,14-trihydroxy-6,16,18-trimethoxy-13-(methoxymethyl)-11-azahexacyclo[7.7.2.12,5.01,10.03,8.013,17]nonadecan-4-yl] ester

> <PUBCHEM_IUPAC_INCHI>
InChI=1S/C34H47NO11/c1-7-35-15-31(16-41-3)20(37)13-21(42-4)33-19-14-32(40)28(45-30(39)18-11-9-8-10-12-18)22(19)34(46-17(2)36,27(38)29(32)44-6)23(26(33)35)24(43-5)25(31)33/h8-12,19-29,37-38,40H,7,13-16H2,1-6H3/t19-,20-,21?,22-,23+,24?,25?,26+,27+,28-,29+,31+,32-,33?,34-/m1/s1

> <PUBCHEM_IUPAC_INCHIKEY>
XFSBVAOIAHNAPC-RBCFRTBUSA-N

> <PUBCHEM_XLOGP3_AA>
0.3

> <PUBCHEM_EXACT_MASS>
645.31491132

> <PUBCHEM_MOLECULAR_FORMULA>
C34H47NO11

> <PUBCHEM_MOLECULAR_WEIGHT>
645.7

> <PUBCHEM_SMILES>
CCN1C[C@@]2([C@@H](CC(C34[C@@H]1[C@H](C(C23)OC)[C@@]5([C@@H]6[C@H]4C[C@@]([C@@H]6OC(=O)C7=CC=CC=C7)([C@H]([C@@H]5O)OC)O)OC(=O)C)OC)O)COC

> <PUBCHEM_OPENEYE_CAN_SMILES>
CCN1CC2(C(CC(C34C2C(C(C31)C5(C6C4CC(C6OC(=O)C7=CC=CC=C7)(C(C5O)OC)O)OC(=O)C)OC)OC)O)COC

> <PUBCHEM_OPENEYE_ISO_SMILES>
CCN1C[C@@]2([C@@H](CC(C34[C@@H]1[C@H](C(C23)OC)[C@@]5([C@@H]6[C@H]4C[C@@]([C@@H]6OC(=O)C7=CC=CC=C7)([C@H]([C@@H]5O)OC)O)OC(=O)C)OC)O)COC

> <PUBCHEM_CACTVS_TPSA>
153

> <PUBCHEM_MONOISOTOPIC_WEIGHT>
645.31491132

> <PUBCHEM_TOTAL_CHARGE>
0

> <PUBCHEM_HEAVY_ATOM_COUNT>
46

> <PUBCHEM_ATOM_DEF_STEREO_COUNT>
11

> <PUBCHEM_ATOM_UDEF_STEREO_COUNT>
4

> <PUBCHEM_BOND_DEF_STEREO_COUNT>
0

> <PUBCHEM_BOND_UDEF_STEREO_COUNT>
0

> <PUBCHEM_ISOTOPIC_ATOM_COUNT>
0

> <PUBCHEM_COMPONENT_COUNT>
1

> <PUBCHEM_CACTVS_TAUTO_COUNT>
-1

> <PUBCHEM_COORDINATE_TYPE>
1
5
255

> <PUBCHEM_BONDANNOTATIONS>
19  1  6
13  22  3
14  20  3
15  48  6
16  49  6
17  50  5
18  51  6
20  2  3
21  31  6
22  3  3
25  4  5
41  42  8
41  43  8
42  44  8
43  45  8
44  46  8
45  46  8
24  5  6
26  6  5
29  7  6
28  8  5

$$$$
